#Buttner cif as0598a
data_as0598a
_chemical_name_systematic 'Barium titanate'
_chemical_formula_structural 'Ba (Ti O3)'
_chemical_formula_sum 'Ba1 O3 Ti1'
loop_
_cell_length_a 4.0799
_cell_length_b 4.0799
_cell_length_c 4.0180
_cell_angle_alpha 90.
_cell_angle_beta 90.
_cell_angle_gamma 90.
_cell_volume 64.28
_cell_formula_units_Z 1
_symmetry_space_group_name_H-M 'P 4 m m'
_symmetry_Int_Tables_number 99
_refine_ls_R_factor_all 0.046
loop_
_symmetry_equiv_pos_site_id
_symmetry_equiv_pos_as_xyz
1 'y, -x, z'
2 '-y, x, z'
3 '-y, -x, z'
4 'y, x, z'
5 'x, -y, z'
6 '-x, y, z'
7 '-x, -y, z'
8 'x, y, z'
loop_
_atom_type_symbol
_atom_type_oxidation_number
Ba2+ 2
Ti4+ 4
O2- -2
loop_
_atom_site_label
_atom_site_type_symbol
_atom_site_symmetry_multiplicity
_atom_site_Wyckoff_symbol
_atom_site_fract_x
_atom_site_fract_y
_atom_site_fract_z
_atom_site_B_iso_or_equiv
_atom_site_occupancy
O2 O 2  b  0.5000 0.0000 0.5150 0.6 1.0
Ti1 Ti 1 b 0.5000 0.5000 0.4820 0.6 1.0
O1 O 1  b  0.5000 0.5000 0.0160 0.6 1.0
Ba1 Ba 1 a 0.0000 0.0000 0.0000 0.6 1.0
#End of cif
